
    -----------------------------------------------------------------------
          Psi4: An Open-Source Ab Initio Electronic Structure Package
                               Psi4 1.3.2 release

                         Git: Rev {HEAD} ecbda83 


    R. M. Parrish, L. A. Burns, D. G. A. Smith, A. C. Simmonett,
    A. E. DePrince III, E. G. Hohenstein, U. Bozkaya, A. Yu. Sokolov,
    R. Di Remigio, R. M. Richard, J. F. Gonthier, A. M. James,
    H. R. McAlexander, A. Kumar, M. Saitow, X. Wang, B. P. Pritchard,
    P. Verma, H. F. Schaefer III, K. Patkowski, R. A. King, E. F. Valeev,
    F. A. Evangelista, J. M. Turney, T. D. Crawford, and C. D. Sherrill,
    J. Chem. Theory Comput. 13(7) pp 3185--3197 (2017).
    (doi: 10.1021/acs.jctc.7b00174)


                         Additional Contributions by
    P. Kraus, H. Kruse, M. H. Lechner, M. C. Schieber, R. A. Shaw,
    A. Alenaizan, R. Galvelis, Z. L. Glick, S. Lehtola, and J. P. Misiewicz

    -----------------------------------------------------------------------


    Psi4 started on: Wednesday, 18 March 2020 05:31PM

    Process ID: 28907
    Host:       BabyShark
    PSIDATADIR: /home/aroeira/psi4conda/share/psi4
    Memory:     500.0 MiB
    Threads:    1
    
  ==> Input File <==

--------------------------------------------------------------------------
import sys
sys.path.append('.')
from auto import RCCSD as auto
from Stanton import RCCSD as Stt

molecule mol {
    0 1
    O
    H 1 0.96
    H 1 0.96 2 104.5
    symmetry c1
}

set {
    BASIS         cc-pvtz
    REFERENCE     RHF
    SCF_TYPE      PK
    E_CONVERGENCE 12
}

e, wfn = energy('scf', return_wfn=True)
p4 = energy('ccsd')

#auto(wfn, CC_CONV = 8, E_CONV = 12)
Stt(wfn, CC_CONV = 8, E_CONV = 12)
print(p4)

--------------------------------------------------------------------------

*** tstart() called on BabyShark
*** at Wed Mar 18 17:31:12 2020

   => Loading Basis Set <=

    Name: CC-PVTZ
    Role: ORBITAL
    Keyword: BASIS
    atoms 1   entry O          line   262 file /home/aroeira/psi4conda/share/psi4/basis/cc-pvtz.gbs 
    atoms 2-3 entry H          line    23 file /home/aroeira/psi4conda/share/psi4/basis/cc-pvtz.gbs 


         ---------------------------------------------------------
                                   SCF
               by Justin Turney, Rob Parrish, Andy Simmonett
                          and Daniel G. A. Smith
                              RHF Reference
                        1 Threads,    500 MiB Core
         ---------------------------------------------------------

  ==> Geometry <==

    Molecular point group: c1
    Full point group: C2v

    Geometry (in Angstrom), charge = 0, multiplicity = 1:

       Center              X                  Y                   Z               Mass       
    ------------   -----------------  -----------------  -----------------  -----------------
         O            0.000000000000     0.000000000000    -0.065775570547    15.994914619570
         H            0.000000000000    -0.759061990794     0.521953018286     1.007825032230
         H            0.000000000000     0.759061990794     0.521953018286     1.007825032230

  Running in c1 symmetry.

  Rotational constants: A =     27.26297  B =     14.51533  C =      9.47217 [cm^-1]
  Rotational constants: A = 817323.21126  B = 435158.60141  C = 283968.37536 [MHz]
  Nuclear repulsion =    9.168193296424349

  Charge       = 0
  Multiplicity = 1
  Electrons    = 10
  Nalpha       = 5
  Nbeta        = 5

  ==> Algorithm <==

  SCF Algorithm Type is PK.
  DIIS enabled.
  MOM disabled.
  Fractional occupation disabled.
  Guess Type is SAD.
  Energy threshold   = 1.00e-12
  Density threshold  = 1.00e-06
  Integral threshold = 0.00e+00

  ==> Primary Basis <==

  Basis Set: CC-PVTZ
    Blend: CC-PVTZ
    Number of shells: 22
    Number of basis function: 58
    Number of Cartesian functions: 65
    Spherical Harmonics?: true
    Max angular momentum: 3

  ==> Pre-Iterations <==

   -------------------------------------------------------
    Irrep   Nso     Nmo     Nalpha   Nbeta   Ndocc  Nsocc
   -------------------------------------------------------
     A         58      58       0       0       0       0
   -------------------------------------------------------
    Total      58      58       5       5       5       0
   -------------------------------------------------------

  ==> Integral Setup <==

  Using in-core PK algorithm.
   Calculation information:
      Number of atoms:                   3
      Number of AO shells:              22
      Number of primitives:             42
      Number of atomic orbitals:        65
      Number of basis functions:        58

      Integral cutoff                 1.00e-12
      Number of threads:                 1

  Performing in-core PK
  Using 2929232 doubles for integral storage.
  We computed 32131 shell quartets total.
  Whereas there are 32131 unique shell quartets.

  ==> DiskJK: Disk-Based J/K Matrices <==

    J tasked:                  Yes
    K tasked:                  Yes
    wK tasked:                  No
    Memory [MiB]:              375
    Schwarz Cutoff:          1E-12

    OpenMP threads:              1

  Minimum eigenvalue in the overlap matrix is 2.5191858817E-03.
  Using Symmetric Orthogonalization.

  SCF Guess: Superposition of Atomic Densities via on-the-fly atomic UHF.

  ==> Iterations <==

                        Total Energy        Delta E     RMS |[F,P]|

   @RHF iter SAD:   -75.49812401195810   -7.54981e+01   0.00000e+00 
   @RHF iter   1:   -75.97850248136176   -4.80378e-01   7.78277e-03 DIIS
   @RHF iter   2:   -76.03102452195772   -5.25220e-02   5.03103e-03 DIIS
   @RHF iter   3:   -76.05654669714276   -2.55222e-02   3.75896e-04 DIIS
   @RHF iter   4:   -76.05693807454993   -3.91377e-04   9.21267e-05 DIIS
   @RHF iter   5:   -76.05696293908964   -2.48645e-05   1.90842e-05 DIIS
   @RHF iter   6:   -76.05696451249727   -1.57341e-06   3.71057e-06 DIIS
   @RHF iter   7:   -76.05696457338458   -6.08873e-08   5.99052e-07 DIIS
   @RHF iter   8:   -76.05696457469821   -1.31364e-09   9.35689e-08 DIIS
   @RHF iter   9:   -76.05696457473100   -3.27844e-11   2.61403e-08 DIIS
   @RHF iter  10:   -76.05696457473383   -2.82796e-12   3.28765e-09 DIIS
   @RHF iter  11:   -76.05696457473374    8.52651e-14   4.61464e-10 DIIS
  Energy and wave function converged.


  ==> Post-Iterations <==

    Orbital Energies [Eh]
    ---------------------

    Doubly Occupied:                                                      

       1A    -20.555232     2A     -1.344244     3A     -0.708249  
       4A     -0.577218     5A     -0.504254  

    Virtual:                                                              

       6A      0.141977     7A      0.203802     8A      0.543057  
       9A      0.600691    10A      0.668721    11A      0.787381  
      12A      0.800215    13A      0.805187    14A      0.860566  
      15A      0.954881    16A      1.133764    17A      1.195537  
      18A      1.524475    19A      1.562071    20A      2.035836  
      21A      2.056357    22A      2.064937    23A      2.170550  
      24A      2.235014    25A      2.588627    26A      2.961541  
      27A      3.355762    28A      3.489683    29A      3.580110  
      30A      3.652547    31A      3.798463    32A      3.875879  
      33A      3.884215    34A      3.960005    35A      4.018829  
      36A      4.075117    37A      4.189330    38A      4.309344  
      39A      4.384153    40A      4.577914    41A      4.682811  
      42A      4.859505    43A      5.148787    44A      5.250631  
      45A      5.526564    46A      6.046592    47A      6.560368  
      48A      6.915497    49A      6.938764    50A      7.001984  
      51A      7.014134    52A      7.055018    53A      7.166200  
      54A      7.231268    55A      7.454036    56A      7.787536  
      57A      8.277659    58A     12.832156  

    Final Occupation by Irrep:
              A 
    DOCC [     5 ]

  @RHF Final Energy:   -76.05696457473374

   => Energetics <=

    Nuclear Repulsion Energy =              9.1681932964243487
    One-Electron Energy =                -123.0719196999543357
    Two-Electron Energy =                  37.8467618287962466
    Total Energy =                        -76.0569645747337404

Computation Completed


Properties will be evaluated at   0.000000,   0.000000,   0.000000 [a0]

Properties computed using the SCF density matrix

  Nuclear Dipole Moment: [e a0]
     X:     0.0000      Y:     0.0000      Z:     0.9783

  Electronic Dipole Moment: [e a0]
     X:    -0.0000      Y:    -0.0000      Z:    -0.1806

  Dipole Moment: [e a0]
     X:    -0.0000      Y:    -0.0000      Z:     0.7977     Total:     0.7977

  Dipole Moment: [D]
     X:    -0.0000      Y:    -0.0000      Z:     2.0275     Total:     2.0275


*** tstop() called on BabyShark at Wed Mar 18 17:31:12 2020
Module time:
	user time   =       0.68 seconds =       0.01 minutes
	system time =       0.03 seconds =       0.00 minutes
	total time  =          0 seconds =       0.00 minutes
Total time:
	user time   =       0.68 seconds =       0.01 minutes
	system time =       0.03 seconds =       0.00 minutes
	total time  =          0 seconds =       0.00 minutes

*** tstart() called on BabyShark
*** at Wed Mar 18 17:31:12 2020

   => Loading Basis Set <=

    Name: CC-PVTZ
    Role: ORBITAL
    Keyword: BASIS
    atoms 1   entry O          line   262 file /home/aroeira/psi4conda/share/psi4/basis/cc-pvtz.gbs 
    atoms 2-3 entry H          line    23 file /home/aroeira/psi4conda/share/psi4/basis/cc-pvtz.gbs 


         ---------------------------------------------------------
                                   SCF
               by Justin Turney, Rob Parrish, Andy Simmonett
                          and Daniel G. A. Smith
                              RHF Reference
                        1 Threads,    500 MiB Core
         ---------------------------------------------------------

  ==> Geometry <==

    Molecular point group: c1
    Full point group: C2v

    Geometry (in Angstrom), charge = 0, multiplicity = 1:

       Center              X                  Y                   Z               Mass       
    ------------   -----------------  -----------------  -----------------  -----------------
         O            0.000000000000     0.000000000000    -0.065775570547    15.994914619570
         H            0.000000000000    -0.759061990794     0.521953018286     1.007825032230
         H            0.000000000000     0.759061990794     0.521953018286     1.007825032230

  Running in c1 symmetry.

  Rotational constants: A =     27.26297  B =     14.51533  C =      9.47217 [cm^-1]
  Rotational constants: A = 817323.21126  B = 435158.60141  C = 283968.37536 [MHz]
  Nuclear repulsion =    9.168193296424349

  Charge       = 0
  Multiplicity = 1
  Electrons    = 10
  Nalpha       = 5
  Nbeta        = 5

  ==> Algorithm <==

  SCF Algorithm Type is PK.
  DIIS enabled.
  MOM disabled.
  Fractional occupation disabled.
  Guess Type is SAD.
  Energy threshold   = 1.00e-12
  Density threshold  = 1.00e-08
  Integral threshold = 0.00e+00

  ==> Primary Basis <==

  Basis Set: CC-PVTZ
    Blend: CC-PVTZ
    Number of shells: 22
    Number of basis function: 58
    Number of Cartesian functions: 65
    Spherical Harmonics?: true
    Max angular momentum: 3

  ==> Pre-Iterations <==

   -------------------------------------------------------
    Irrep   Nso     Nmo     Nalpha   Nbeta   Ndocc  Nsocc
   -------------------------------------------------------
     A         58      58       0       0       0       0
   -------------------------------------------------------
    Total      58      58       5       5       5       0
   -------------------------------------------------------

  ==> Integral Setup <==

  Using in-core PK algorithm.
   Calculation information:
      Number of atoms:                   3
      Number of AO shells:              22
      Number of primitives:             42
      Number of atomic orbitals:        65
      Number of basis functions:        58

      Integral cutoff                 1.00e-12
      Number of threads:                 1

  Performing in-core PK
  Using 2929232 doubles for integral storage.
  We computed 32131 shell quartets total.
  Whereas there are 32131 unique shell quartets.

  ==> DiskJK: Disk-Based J/K Matrices <==

    J tasked:                  Yes
    K tasked:                  Yes
    wK tasked:                  No
    Memory [MiB]:              375
    Schwarz Cutoff:          1E-12

    OpenMP threads:              1

  Minimum eigenvalue in the overlap matrix is 2.5191858817E-03.
  Using Symmetric Orthogonalization.

  SCF Guess: Superposition of Atomic Densities via on-the-fly atomic UHF.

  ==> Iterations <==

                        Total Energy        Delta E     RMS |[F,P]|

   @RHF iter SAD:   -75.49812401195810   -7.54981e+01   0.00000e+00 
   @RHF iter   1:   -75.97850248136176   -4.80378e-01   7.78277e-03 DIIS
   @RHF iter   2:   -76.03102452195772   -5.25220e-02   5.03103e-03 DIIS
   @RHF iter   3:   -76.05654669714276   -2.55222e-02   3.75896e-04 DIIS
   @RHF iter   4:   -76.05693807454993   -3.91377e-04   9.21267e-05 DIIS
   @RHF iter   5:   -76.05696293908964   -2.48645e-05   1.90842e-05 DIIS
   @RHF iter   6:   -76.05696451249727   -1.57341e-06   3.71057e-06 DIIS
   @RHF iter   7:   -76.05696457338458   -6.08873e-08   5.99052e-07 DIIS
   @RHF iter   8:   -76.05696457469821   -1.31364e-09   9.35689e-08 DIIS
   @RHF iter   9:   -76.05696457473100   -3.27844e-11   2.61403e-08 DIIS
   @RHF iter  10:   -76.05696457473383   -2.82796e-12   3.28765e-09 DIIS
   @RHF iter  11:   -76.05696457473374    8.52651e-14   4.61464e-10 DIIS
  Energy and wave function converged.


  ==> Post-Iterations <==

    Orbital Energies [Eh]
    ---------------------

    Doubly Occupied:                                                      

       1A    -20.555232     2A     -1.344244     3A     -0.708249  
       4A     -0.577218     5A     -0.504254  

    Virtual:                                                              

       6A      0.141977     7A      0.203802     8A      0.543057  
       9A      0.600691    10A      0.668721    11A      0.787381  
      12A      0.800215    13A      0.805187    14A      0.860566  
      15A      0.954881    16A      1.133764    17A      1.195537  
      18A      1.524475    19A      1.562071    20A      2.035836  
      21A      2.056357    22A      2.064937    23A      2.170550  
      24A      2.235014    25A      2.588627    26A      2.961541  
      27A      3.355762    28A      3.489683    29A      3.580110  
      30A      3.652547    31A      3.798463    32A      3.875879  
      33A      3.884215    34A      3.960005    35A      4.018829  
      36A      4.075117    37A      4.189330    38A      4.309344  
      39A      4.384153    40A      4.577914    41A      4.682811  
      42A      4.859505    43A      5.148787    44A      5.250631  
      45A      5.526564    46A      6.046592    47A      6.560368  
      48A      6.915497    49A      6.938764    50A      7.001984  
      51A      7.014134    52A      7.055018    53A      7.166200  
      54A      7.231268    55A      7.454036    56A      7.787536  
      57A      8.277659    58A     12.832156  

    Final Occupation by Irrep:
              A 
    DOCC [     5 ]

  @RHF Final Energy:   -76.05696457473374

   => Energetics <=

    Nuclear Repulsion Energy =              9.1681932964243487
    One-Electron Energy =                -123.0719196999543357
    Two-Electron Energy =                  37.8467618287962466
    Total Energy =                        -76.0569645747337404

Computation Completed


Properties will be evaluated at   0.000000,   0.000000,   0.000000 [a0]

Properties computed using the SCF density matrix

  Nuclear Dipole Moment: [e a0]
     X:     0.0000      Y:     0.0000      Z:     0.9783

  Electronic Dipole Moment: [e a0]
     X:    -0.0000      Y:    -0.0000      Z:    -0.1806

  Dipole Moment: [e a0]
     X:    -0.0000      Y:    -0.0000      Z:     0.7977     Total:     0.7977

  Dipole Moment: [D]
     X:    -0.0000      Y:    -0.0000      Z:     2.0275     Total:     2.0275


*** tstop() called on BabyShark at Wed Mar 18 17:31:13 2020
Module time:
	user time   =       0.68 seconds =       0.01 minutes
	system time =       0.02 seconds =       0.00 minutes
	total time  =          1 seconds =       0.02 minutes
Total time:
	user time   =       1.37 seconds =       0.02 minutes
	system time =       0.05 seconds =       0.00 minutes
	total time  =          1 seconds =       0.02 minutes
 MINTS: Wrapper to libmints.
   by Justin Turney

   Calculation information:
      Number of threads:                 1
      Number of atoms:                   3
      Number of AO shells:              22
      Number of SO shells:              22
      Number of primitives:             42
      Number of atomic orbitals:        65
      Number of basis functions:        58

      Number of irreps:                  1
      Integral cutoff                 0.00e+00
      Number of functions per irrep: [  58 ]

 OEINTS: Overlap, kinetic, potential, dipole, and quadrupole integrals
         stored in file 35.

      Computing two-electron integrals...done
      Computed 704709 non-zero two-electron integrals.
        Stored in file 33.


*** tstart() called on BabyShark
*** at Wed Mar 18 17:31:13 2020


	Wfn Parameters:
	--------------------
	Wavefunction         = CCSD
	Number of irreps     = 1
	Number of MOs        = 58
	Number of active MOs = 58
	AO-Basis             = NONE
	Semicanonical        = false
	Reference            = RHF
	Print Level          = 1

	IRREP	# MOs	# FZDC	# DOCC	# SOCC	# VIRT	# FZVR
	-----	-----	------	------	------	------	------
	 A	   58	    0	    5	    0	    53	    0
	Transforming integrals...
	IWL integrals will be deleted.
	(OO|OO)...
	Presorting SO-basis two-electron integrals.
	Sorting File: SO Ints (nn|nn) nbuckets = 1
	Transforming the one-electron integrals and constructing Fock matrices
	Starting first half-transformation.
	Sorting half-transformed integrals.
	First half integral transformation complete.
	Starting second half-transformation.
	Two-electron integral transformation complete.
	(OO|OV)...
	Starting second half-transformation.
	Two-electron integral transformation complete.
	(OO|VV)...
	Starting second half-transformation.
	Two-electron integral transformation complete.
	(OV|OO)...
	Starting first half-transformation.
	Sorting half-transformed integrals.
	First half integral transformation complete.
	Starting second half-transformation.
	Two-electron integral transformation complete.
	(OV|OV)...
	Starting second half-transformation.
	Two-electron integral transformation complete.
	(OV|VV)...
	Starting second half-transformation.
	Two-electron integral transformation complete.
	(VV|OO)...
	Starting first half-transformation.
	Sorting half-transformed integrals.
	First half integral transformation complete.
	Starting second half-transformation.
	Two-electron integral transformation complete.
	(VV|OV)...
	Starting second half-transformation.
	Two-electron integral transformation complete.
	(VV|VV)...
	Starting second half-transformation.
	Two-electron integral transformation complete.
	Frozen core energy     =      0.00000000000000

	Size of irrep 0 of <ab|cd> integrals:      7.890 (MW) /     63.124 (MB)
	Total:                                     7.890 (MW) /     63.124 (MB)

	Size of irrep 0 of <ia|bc> integrals:      0.744 (MW) /      5.955 (MB)
	Total:                                     0.744 (MW) /      5.955 (MB)

	Size of irrep 0 of tijab amplitudes:       0.070 (MW) /      0.562 (MB)
	Total:                                     0.070 (MW) /      0.562 (MB)

	Nuclear Rep. energy          =      9.16819329642435
	SCF energy                   =    -76.05696457473374
	One-electron energy          =   -123.07191970027971
	Two-electron energy          =     37.84676182912152
	Reference energy             =    -76.05696457473384

*** tstop() called on BabyShark at Wed Mar 18 17:31:14 2020
Module time:
	user time   =       0.53 seconds =       0.01 minutes
	system time =       0.45 seconds =       0.01 minutes
	total time  =          1 seconds =       0.02 minutes
Total time:
	user time   =       2.03 seconds =       0.03 minutes
	system time =       0.51 seconds =       0.01 minutes
	total time  =          2 seconds =       0.03 minutes
            **************************
            *                        *
            *        CCENERGY        *
            *                        *
            **************************

    Nuclear Rep. energy (wfn)     =    9.168193296424349
    SCF energy          (wfn)     =  -76.056964574733740
    Reference energy    (file100) =  -76.056964574733840

    Input parameters:
    -----------------
    Wave function   =     CCSD
    Reference wfn   =     RHF
    Brueckner       =     No
    Memory (Mbytes) =     524.3
    Maxiter         =     50
    R_Convergence   =     1.0e-07
    E_Convergence   =     1.0e-12
    Restart         =     Yes
    DIIS            =     Yes
    AO Basis        =     NONE
    ABCD            =     NEW
    Cache Level     =     2
    Cache Type      =     LOW
    Print Level     =     1
    Num. of threads =     1
    # Amps to Print =     10
    Print MP2 Amps? =     No
    Analyze T2 Amps =     No
    Print Pair Ener =     No
    Local CC        =     No
    SCS-MP2         =     False
    SCSN-MP2        =     False
    SCS-CCSD        =     False

MP2 correlation energy -0.2752631745704284
                Solving CC Amplitude Equations
                ------------------------------
  Iter             Energy              RMS        T1Diag      D1Diag    New D1Diag    D2Diag
  ----     ---------------------    ---------   ----------  ----------  ----------   --------
     0        -0.275263174570428    0.000e+00    0.000000    0.000000    0.000000    0.116214
     1        -0.275364155232527    2.899e-02    0.005079    0.009215    0.009215    0.119743
     2        -0.280271193565341    1.001e-02    0.005238    0.009330    0.009330    0.124397
     3        -0.280984135200369    3.208e-03    0.005749    0.010400    0.010400    0.126051
     4        -0.280974690636798    6.433e-04    0.005779    0.010475    0.010475    0.126255
     5        -0.280995996495636    1.986e-04    0.005795    0.010550    0.010550    0.126301
     6        -0.280997238664743    5.829e-05    0.005799    0.010580    0.010580    0.126298
     7        -0.280997252814335    1.918e-05    0.005801    0.010594    0.010594    0.126297
     8        -0.280996955009191    5.253e-06    0.005802    0.010598    0.010598    0.126297
     9        -0.280996875364223    1.078e-06    0.005802    0.010599    0.010599    0.126297
    10        -0.280996888596099    2.411e-07    0.005802    0.010599    0.010599    0.126297
    11        -0.280996887774323    4.668e-08    0.005802    0.010599    0.010599    0.126297
    12        -0.280996889374608    1.068e-08    0.005802    0.010599    0.010599    0.126297
    13        -0.280996889462126    2.586e-09    0.005802    0.010599    0.010599    0.126297
    14        -0.280996889479823    6.535e-10    0.005802    0.010599    0.010599    0.126297
    15        -0.280996889489059    2.041e-10    0.005802    0.010599    0.010599    0.126297
    16        -0.280996889489476    4.812e-11    0.005802    0.010599    0.010599    0.126297
    17        -0.280996889488974    1.257e-11    0.005802    0.010599    0.010599    0.126297

    Iterations converged.


    Largest TIA Amplitudes:
              4   5        -0.0071130077
              2  12         0.0059616947
              3   0        -0.0053758220
              4   9        -0.0048709127
              3   6         0.0044199313
              3  13        -0.0043999064
              1   4         0.0040445742
              2  30         0.0039099888
              3  31         0.0038570988
              3   4        -0.0035791318

    Largest TIjAb Amplitudes:
      4   4   5   5        -0.0476318759
      3   3   4   4        -0.0296873104
      2   2   2   2        -0.0269251540
      3   4   4   5        -0.0259585689
      4   3   5   4        -0.0259585689
      2   2   3   3        -0.0255672744
      2   2   7   7        -0.0226542211
      2   4   7   5        -0.0222300271
      4   2   5   7        -0.0222300271
      3   3   2   2        -0.0220426632

    SCF energy       (wfn)                    =  -76.056964574733740
    Reference energy (file100)                =  -76.056964574733840

    Opposite-spin MP2 correlation energy      =   -0.208667487096926
    Same-spin MP2 correlation energy          =   -0.066595687473503
    MP2 correlation energy                    =   -0.275263174570428
      * MP2 total energy                      =  -76.332227749304266

    Opposite-spin CCSD correlation energy     =   -0.221392218541751
    Same-spin CCSD correlation energy         =   -0.059604670947223
    CCSD correlation energy                   =   -0.280996889488974
      * CCSD total energy                     =  -76.337961464222815


    Psi4 stopped on: Wednesday, 18 March 2020 05:31PM
    Psi4 wall time for execution: 0:00:18.80

*** Psi4 exiting successfully. Buy a developer a beer!
